ITEM: TIMESTEP
2100
ITEM: NUMBER OF ATOMS
250
ITEM: BOX BOUNDS pp pp pp
-1.0512545457936816e-01 1.5930125454579160e+01
-1.0512545457936816e-01 1.5930125454579160e+01
-1.0512545457936816e-01 1.5930125454579160e+01
ITEM: ATOMS id type x y z
1 1 16.1302 15.6981 16.0568
2 1 1.45071 1.34511 1.29124
3 1 15.7753 15.967 2.88018
4 1 1.37766 1.24686 4.6235
5 1 15.9289 15.9563 6.26291
6 1 1.5705 1.32333 7.61878
7 1 -0.0822509 15.7018 9.45546
8 1 1.52154 1.65667 11.0013
9 1 15.9908 -0.121507 13.0503
10 1 1.51886 1.62766 14.388
11 1 -0.0466301 3.08244 -0.242954
12 1 1.33494 4.68917 1.44073
13 1 15.9375 3.02891 2.99076
14 1 1.40782 4.5339 4.57546
15 1 -0.250289 3.13163 6.32095
16 1 1.611 4.55469 7.80156
17 1 -0.139424 2.93674 9.60726
18 1 1.26742 4.47258 10.9773
19 1 16.0227 3.04622 12.5962
20 1 1.46226 4.7869 14.1108
21 1 16.0632 6.33915 15.9765
22 1 1.47254 8.02338 1.65829
23 1 -0.342962 6.22153 3.04924
24 1 1.46247 7.87617 4.7222
25 1 16.2094 6.21154 6.36747
26 1 1.4358 8.02522 7.9097
27 1 -0.178163 6.25187 9.27391
28 1 1.66823 8.05529 10.9981
29 1 16.1146 6.29297 12.4279
30 1 1.59172 7.95555 13.9712
31 1 0.175234 9.61062 -0.361997
32 1 1.65373 10.9725 1.64242
33 1 15.7774 9.59226 3.5285
34 1 1.53205 11.1855 5.09163
35 1 15.9569 9.64982 6.1858
36 1 1.67658 11.0081 7.77415
37 1 -0.238179 9.31221 9.3222
38 1 1.55909 11.3397 11.4403
39 1 -0.0515561 8.93207 12.4171
40 1 1.66069 11.1365 14.2896
41 1 0.0206615 12.5427 -0.0909773
42 1 1.70868 14.1973 1.46964
43 1 15.9973 12.7865 3.06984
44 1 1.27371 14.4919 4.84203
45 1 -0.0171229 12.6388 6.38331
46 1 1.84823 14.2389 8.09318
47 1 16.4578 12.8177 9.81506
48 1 1.59002 14.3307 11.4027
49 1 -0.262414 12.7204 12.8081
50 1 1.58346 14.4683 14.2688
51 1 3.07698 -0.0345917 -0.284671
52 1 4.42556 1.35905 1.49174
53 1 3.07614 -0.223742 3.1337
54 1 4.72314 1.49321 4.62205
55 1 3.26896 -0.188262 6.27503
56 1 4.72285 1.53463 7.6479
57 1 3.17962 0.0819066 9.59814
58 1 4.6319 1.72965 11.4416
59 1 3.07667 0.190932 12.7265
60 1 4.44256 1.90731 14.3284
61 1 2.89524 3.38307 -0.071926
62 1 4.48638 4.88283 1.63007
63 1 3.11912 3.17223 2.99235
64 1 4.58113 4.70153 4.57708
65 1 3.13916 3.30352 6.18692
66 1 4.79876 4.60521 7.77246
67 1 3.3728 3.21511 9.55832
68 1 4.83688 4.79376 11.1897
69 1 2.9257 3.42203 12.6621
70 1 4.6234 4.9093 14.2991
71 1 2.79988 6.51636 15.9755
72 1 4.6981 7.87939 1.45151
73 1 2.79678 6.29529 3.16813
74 1 4.77465 7.72434 4.70213
75 1 3.15922 6.2281 6.4901
76 1 4.75203 7.92599 7.71467
77 1 2.98265 6.28117 9.38986
78 1 4.78434 8.18895 11.0281
79 1 3.23868 6.6262 12.3546
80 1 4.76302 7.89138 14.6578
81 1 3.2005 9.64387 16.0727
82 1 4.44238 11.3181 1.2404
83 1 2.89465 9.4976 3.04272
84 1 4.87059 10.9728 4.64849
85 1 3.21137 9.3959 6.29978
86 1 4.76597 11.0301 7.78634
87 1 3.07227 9.60175 9.36969
88 1 4.58977 11.2197 11.0538
89 1 3.14563 9.76392 12.4144
90 1 4.64011 11.0945 14.2186
91 1 3.03242 12.8607 -0.0671302
92 1 4.7203 14.2463 1.50075
93 1 2.85907 12.7355 3.43111
94 1 4.84025 14.4471 4.75203
95 1 3.20138 12.7631 6.23491
96 1 4.97676 14.2861 8.01151
97 1 3.28569 12.6261 9.45007
98 1 4.90555 14.6508 11.1224
99 1 3.36517 12.6142 12.5624
100 1 4.43619 14.3165 14.1911
101 1 6.05979 16.2692 -0.0608735
102 1 7.97832 1.69405 1.27406
103 1 6.43432 0.00996003 2.87955
104 1 8.13008 1.548 4.58565
105 1 6.36529 16.2287 6.20055
106 1 7.93093 1.58937 7.86757
107 1 6.43868 15.9967 9.39323
108 1 7.71569 1.49271 11.1965
109 1 6.19979 16.0002 12.957
110 1 7.67816 1.62833 14.4132
111 1 6.13978 3.24857 -0.192232
112 1 7.83789 4.74187 1.53736
113 1 6.44507 3.05233 3.10001
114 1 7.64948 4.68077 4.57528
115 1 6.50356 3.24585 6.17697
116 1 8.43023 4.70227 7.94172
117 1 6.25936 3.0597 9.7338
118 1 7.94369 4.89225 11.2821
119 1 6.14807 3.20694 12.6146
120 1 7.7592 4.81208 14.3626
121 1 6.24425 6.14983 -0.185845
122 1 8.07344 7.95496 1.54058
123 1 6.3217 6.30742 2.93365
124 1 7.82411 7.78521 4.5969
125 1 6.43499 6.13692 6.33211
126 1 7.92964 8.04495 7.87607
127 1 6.34482 6.21238 9.69722
128 1 7.57152 7.93215 11.1137
129 1 6.20667 6.32483 12.6584
130 1 7.79562 7.72697 14.289
131 1 6.18676 9.52408 0.078286
132 1 7.5917 11.387 1.46753
133 1 6.41809 9.40731 3.07194
134 1 8.1079 11.392 4.65365
135 1 6.2952 9.42356 6.11397
136 1 7.83301 11.3186 7.88442
137 1 6.12801 9.41883 9.32645
138 1 8.01746 11.2517 11.2484
139 1 6.15843 9.5707 12.9528
140 1 7.9097 11.0478 14.5089
141 1 6.24301 12.6891 -0.250463
142 1 7.63545 14.1481 1.3423
143 1 6.14199 12.8636 3.10529
144 1 8.12253 14.1448 4.63399
145 1 6.40839 12.8333 5.96201
146 1 8.06473 14.3983 7.78243
147 1 6.31657 12.5631 9.53058
148 1 7.87675 14.3648 11.0605
149 1 6.36544 12.7673 12.582
150 1 7.48317 14.1458 14.378
151 1 9.5185 15.7772 15.863
152 1 10.9779 0.988432 1.32346
153 1 9.45673 15.7392 2.93499
154 1 11.1033 1.28048 4.66869
155 1 9.52971 -0.0683225 6.1272
156 1 11.1487 1.50852 7.98412
157 1 9.50027 16.0574 9.65247
158 1 11.1815 1.80231 11.1765
159 1 9.50268 -0.105544 12.6482
160 1 10.8964 1.49974 14.0203
161 1 9.53245 3.02898 16.047
162 1 10.9565 4.82773 1.62543
163 1 9.53747 2.89544 2.98713
164 1 11.0649 4.60281 4.50199
165 1 9.54413 3.12316 6.3281
166 1 11.3115 4.34255 7.82671
167 1 9.50744 3.07141 9.4702
168 1 11.0466 4.61928 11.1001
169 1 9.44471 3.35825 12.8498
170 1 11.2235 4.88104 14.377
171 1 9.44356 6.18415 15.9569
172 1 11.2834 7.74855 1.44931
173 1 9.14004 6.35258 3.12343
174 1 11.1245 7.83682 5.26216
175 1 9.42668 6.21228 6.35503
176 1 10.9981 7.82739 8.09667
177 1 9.60181 6.53468 9.70171
178 1 11.1945 7.89081 11.1375
179 1 9.41662 6.42719 12.6295
180 1 11.2755 7.92139 14.0926
181 1 9.65801 9.27416 16.0132
182 1 10.8375 10.9458 1.6854
183 1 9.34541 9.43102 2.92887
184 1 11.2818 10.8378 4.74739
185 1 9.25571 9.261 6.26707
186 1 10.9933 11.0187 8.02015
187 1 9.59299 9.57474 9.74725
188 1 11.0692 10.9851 11.2546
189 1 9.10157 9.65605 12.6555
190 1 11.372 10.8396 14.3056
191 1 9.49088 12.8973 15.925
192 1 11.3399 14.0479 1.48855
193 1 9.6651 12.7244 3.02407
194 1 11.0928 14.059 4.84157
195 1 9.58533 12.6185 6.31237
196 1 11.159 14.3621 8.12217
197 1 9.6366 12.7035 9.53652
198 1 11.2194 14.4103 11.1697
199 1 9.4243 12.7875 12.6435
200 1 11.2525 14.354 14.3567
201 1 12.6104 15.769 -0.123688
202 1 14.321 1.44955 1.31892
203 1 12.5859 15.9878 3.19199
204 1 14.5077 1.44917 4.59944
205 1 12.9146 -0.251666 6.53362
206 1 14.3443 1.52111 7.80375
207 1 12.8105 16.1135 9.34895
208 1 14.2536 1.2952 11.4211
209 1 12.9323 16.079 13.2386
210 1 13.999 1.77956 14.4881
211 1 12.5758 3.26436 0.148829
212 1 14.3565 4.99015 1.52773
213 1 12.6526 3.13303 3.19224
214 1 14.0309 4.48844 4.73327
215 1 12.5637 2.88697 6.37232
216 1 14.4059 4.82177 7.92341
217 1 12.7851 3.09979 9.40106
218 1 14.5603 4.79932 11.0661
219 1 12.7354 3.41317 12.5847
220 1 14.4152 4.85232 14.5263
221 1 12.9038 6.33103 15.8668
222 1 14.3756 8.1317 1.54612
223 1 12.614 6.41213 3.30862
224 1 14.3115 7.75321 5.0874
225 1 12.5393 6.42078 6.52806
226 1 14.3177 7.8334 7.79212
227 1 12.7275 6.25505 9.47576
228 1 14.146 7.93912 10.9216
229 1 12.8812 6.32253 12.6374
230 1 14.3608 7.88698 14.2709
231 1 12.6535 9.38739 15.8592
232 1 14.583 11.0992 1.69697
233 1 12.6406 9.32833 3.2337
234 1 14.2187 11.2407 4.83657
235 1 12.6273 9.46047 6.44136
236 1 14.3828 11.3538 8.07401
237 1 12.8701 9.36953 9.43817
238 1 14.6088 11.2039 11.0727
239 1 12.9566 9.41504 12.4398
240 1 14.4746 10.8132 14.1696
241 1 12.9413 12.4229 16.0775
242 1 14.4905 14.3052 1.68937
243 1 12.6102 12.5876 3.38981
244 1 14.1885 14.4219 4.39401
245 1 12.8207 12.6132 6.43958
246 1 14.3035 13.9321 8.37839
247 1 12.7432 12.5211 9.71746
248 1 14.2388 14.4196 11.3976
249 1 12.7278 12.7513 13.0414
250 1 14.3653 14.2798 14.5053
ITEM: TIMESTEP
2200
ITEM: NUMBER OF ATOMS
250
ITEM: BOX BOUNDS pp pp pp
-9.7282918630016937e-02 1.5922282918629806e+01
-9.7282918630016937e-02 1.5922282918629806e+01
-9.7282918630016937e-02 1.5922282918629806e+01
ITEM: ATOMS id type x y z
1 1 0.105692 16.0088 -0.247726
2 1 1.3694 1.6478 1.49138
3 1 16.2986 15.879 3.05638
4 1 1.76063 1.60334 4.68711
5 1 0.0320844 -0.0638737 6.42065
6 1 1.63079 1.67867 8.15452
7 1 -0.0417618 16.1522 9.50747
8 1 1.4181 1.39291 11.1032
9 1 -0.0943206 15.7895 12.6022
10 1 1.5572 1.46734 14.1404
11 1 -0.409165 3.03573 16.1198
12 1 1.33433 4.78732 1.61045
13 1 -0.2791 3.02757 3.29284
14 1 1.53483 4.63039 4.67645
15 1 16.1599 3.11875 6.04856
16 1 1.6618 4.60608 7.85143
17 1 15.826 3.32778 9.24272
18 1 1.7276 4.80978 10.8375
19 1 -0.131874 3.04444 12.8658
20 1 1.49091 4.68234 14.3949
21 1 -0.0626339 6.31753 -0.0940311
22 1 1.54215 7.84641 1.5104
23 1 15.8855 6.16748 3.29098
24 1 1.39559 7.81164 4.66703
25 1 -0.2261 6.17531 6.39471
26 1 1.6583 7.91209 7.6665
27 1 -0.0220846 6.3539 9.52714
28 1 1.37849 7.93824 10.8811
29 1 -0.0726483 6.2522 12.7709
30 1 1.60573 7.73745 14.4602
31 1 -0.181305 9.2607 15.9153
32 1 1.32305 11.2262 1.23631
33 1 16.0778 9.40137 3.21329
34 1 1.53846 11.1779 4.58157
35 1 -0.0174972 9.5513 6.66076
36 1 1.44693 11.4337 7.95653
37 1 15.9566 9.79737 9.64891
38 1 1.51517 10.8988 10.8662
39 1 -0.13359 9.738 12.8203
40 1 1.42437 10.9072 14.2419
41 1 -0.181064 12.6729 -0.205181
42 1 1.53265 14.1663 1.43956
43 1 -0.0100739 12.6053 3.12925
44 1 1.61065 14.2817 4.47727
45 1 -0.213501 13.158 6.34732
46 1 1.43473 14.6191 7.84527
47 1 -0.25148 12.9102 9.4163
48 1 1.5728 14.4449 10.9721
49 1 15.9687 12.7509 12.5495
50 1 1.54439 13.9641 14.223
51 1 3.24835 -0.0644898 15.8819
52 1 4.73334 1.66346 1.34808
53 1 3.10928 16.0781 3.13284
54 1 4.80137 1.6763 4.79617
55 1 3.22126 16.0712 6.48577
56 1 4.85125 1.46047 8.00916
57 1 3.12895 -0.0562147 9.38193
58 1 4.72185 1.68394 10.9208
59 1 3.14348 -0.241176 12.8762
60 1 4.63901 1.66608 14.3183
61 1 2.95489 3.20611 -0.191477
62 1 4.76691 4.4574 1.37638
63 1 3.08981 3.07127 3.15887
64 1 4.66909 4.7306 4.84199
65 1 3.1393 2.99531 6.2917
66 1 4.56823 4.8051 8.06775
67 1 3.1656 2.87554 9.30018
68 1 4.63952 4.9829 10.8558
69 1 3.18524 3.09875 12.4946
70 1 4.50246 4.96539 14.258
71 1 3.3964 6.16359 0.123075
72 1 4.58189 7.89711 1.67965
73 1 3.13775 6.1846 2.9927
74 1 4.45826 7.97476 4.66106
75 1 3.09928 6.24466 6.11792
76 1 4.68907 7.83932 7.93982
77 1 3.20138 6.33972 9.43175
78 1 4.63308 7.91682 10.9774
79 1 2.87119 6.34523 12.6381
80 1 4.70147 7.96574 14.0303
81 1 2.95292 9.29421 -0.23054
82 1 4.59623 10.8584 1.67103
83 1 3.09924 9.54221 3.32251
84 1 4.54162 11.105 4.69723
85 1 3.03938 9.59041 6.24141
86 1 4.61465 11.337 7.77843
87 1 3.18669 9.59272 9.29165
88 1 4.85593 10.8631 10.7498
89 1 2.94349 9.17545 12.8266
90 1 4.72719 10.895 14.33
91 1 3.15277 12.4555 15.5468
92 1 4.54356 14.5124 1.36307
93 1 3.26978 12.7109 2.98022
94 1 4.7605 14.5442 4.76587
95 1 2.91399 12.9111 6.24328
96 1 4.71437 14.5736 8.01317
97 1 3.17139 12.9534 9.57283
98 1 4.69967 14.1672 11.2124
99 1 2.97601 12.6676 12.6548
100 1 5.08983 14.2692 14.1422
101 1 6.31461 -0.174627 -0.415097
102 1 7.69021 1.38628 1.73412
103 1 6.19887 -0.131558 3.17979
104 1 7.88952 1.39286 4.75131
105 1 6.56272 -0.160679 6.33574
106 1 8.02067 1.54128 8.11373
107 1 6.16811 0.139747 9.78617
108 1 8.06807 1.88719 11.2729
109 1 6.22982 0.281138 12.664
110 1 8.09755 1.63183 14.267
111 1 6.30029 3.18425 15.9181
112 1 7.97985 4.52809 1.61638
113 1 6.17167 3.18561 3.03877
114 1 8.24683 4.5327 4.87128
115 1 6.19778 3.04815 6.48908
116 1 7.61433 4.68681 7.96018
117 1 6.37101 3.29265 9.54501
118 1 7.86974 4.65914 11.0796
119 1 6.27238 3.5658 12.9234
120 1 8.00069 4.81421 14.4294
121 1 6.16669 6.42017 16.0324
122 1 7.70738 7.74871 1.40058
123 1 6.00393 6.17912 3.29578
124 1 7.73 7.84604 4.56246
125 1 6.20332 6.39397 6.33772
126 1 7.85174 7.69691 7.84993
127 1 6.23766 6.56653 9.43351
128 1 8.28533 8.0167 11.0496
129 1 6.531 6.58475 12.8688
130 1 8.12773 7.96277 14.5008
131 1 6.4503 9.44284 -0.290491
132 1 8.09275 10.8105 1.60662
133 1 6.09446 9.49822 3.03971
134 1 7.60916 10.8407 4.85249
135 1 6.32345 9.37935 6.324
136 1 7.73789 11.4637 7.72302
137 1 6.60665 9.81873 9.18925
138 1 7.78168 11.0923 10.9104
139 1 6.44343 9.5212 12.4409
140 1 7.88672 11.1726 14.321
141 1 6.15759 12.6817 15.9566
142 1 7.81061 14.4951 1.45593
143 1 6.19459 12.5138 2.99643
144 1 7.6962 14.4544 4.73417
145 1 6.049 12.9969 6.40567
146 1 7.89699 14.4036 8.03464
147 1 6.27047 13.0954 9.45261
148 1 7.72497 14.4113 11.2212
149 1 6.27141 12.4943 12.7467
150 1 8.0743 14.5195 14.2512
151 1 9.41548 16.0193 15.9518
152 1 11.0051 1.67739 1.5498
153 1 9.46883 15.7679 3.15495
154 1 11.2537 1.29432 4.62122
155 1 9.75275 15.7149 6.45232
156 1 11.1729 1.27087 7.87526
157 1 9.37885 -0.0604007 9.60472
158 1 11.2113 1.42388 11.1227
159 1 9.42967 15.9778 12.7584
160 1 11.106 1.6433 14.7263
161 1 9.36747 3.1633 -0.00500645
162 1 11.2974 4.73092 1.63594
163 1 9.52672 3.05201 3.10439
164 1 11.1102 4.55779 4.78926
165 1 9.5474 2.77087 6.38796
166 1 11.0642 4.90733 8.11356
167 1 9.75299 2.95076 9.69359
168 1 11.1666 4.89157 11.0721
169 1 9.53366 3.25357 12.8077
170 1 11.1705 4.68898 14.4548
171 1 9.83591 6.30209 0.0243959
172 1 11.0505 8.09944 1.8145
173 1 9.69413 6.20997 3.18716
174 1 10.963 7.94908 4.29428
175 1 9.59036 6.06707 6.2002
176 1 10.9125 7.88053 7.71762
177 1 9.28243 5.98222 9.41566
178 1 11.268 7.90173 11.1051
179 1 9.79196 6.3163 12.7758
180 1 11.1188 8.02433 14.4265
181 1 9.38994 9.59461 0.103238
182 1 11.3645 11.2044 1.36179
183 1 9.51507 9.5799 3.34882
184 1 10.9158 11.2433 4.71762
185 1 9.64181 9.76178 6.30296
186 1 11.2754 11.0709 7.85154
187 1 9.305 9.55288 9.18856
188 1 11.0283 11.1506 11.0947
189 1 9.74348 9.66349 12.6348
190 1 10.9266 11.3379 14.4142
191 1 9.52381 12.4538 15.9777
192 1 10.8556 14.3007 1.46468
193 1 9.12598 12.5852 3.29025
194 1 11.0723 14.3581 4.70147
195 1 9.60133 12.7912 6.51676
196 1 11.1711 14.2015 7.96375
197 1 9.39675 12.8354 9.60886
198 1 11.0003 14.4615 10.9479
199 1 9.51694 12.6535 12.8225
200 1 10.9815 14.2756 14.457
201 1 12.8271 15.9061 0.0268408
202 1 14.3851 1.28032 1.5654
203 1 12.8 -0.425704 2.98963
204 1 14.2958 1.30355 4.89288
205 1 12.7551 15.6513 6.20111
206 1 14.3143 1.70019 7.80497
207 1 13.0797 -9.78869e-05 9.51773
208 1 14.5131 1.58016 11.1551
209 1 12.4258 -0.131527 12.5266
210 1 14.5603 1.38654 14.4901
211 1 12.69 2.96028 -0.181101
212 1 14.1332 4.38751 1.54996
213 1 12.59 2.85455 3.20591
214 1 14.4661 4.78536 4.65233
215 1 12.7984 3.05382 5.99878
216 1 14.2929 4.77009 7.62477
217 1 12.9657 3.14131 9.90069
218 1 14.2017 4.70885 11.0409
219 1 12.8682 3.02674 13.0527
220 1 14.5798 4.56388 14.282
221 1 12.6591 6.33468 16.1657
222 1 14.4671 7.80197 1.59427
223 1 12.9068 6.45259 3.14118
224 1 14.3238 8.05722 4.78937
225 1 12.8367 6.07043 6.15182
226 1 14.2525 8.00801 7.9798
227 1 12.7998 6.36475 9.39689
228 1 14.6274 7.76036 11.2983
229 1 12.6813 6.17428 12.8573
230 1 14.2042 7.70483 14.396
231 1 12.9177 9.43588 16.1585
232 1 14.3736 10.8259 1.41788
233 1 12.9798 9.63797 3.13471
234 1 14.4466 11.0552 4.92344
235 1 12.8133 9.52874 6.30451
236 1 14.3155 10.9919 7.86885
237 1 12.4436 9.58184 9.63538
238 1 14.0659 11.0689 11.0586
239 1 12.6428 9.61023 12.8425
240 1 14.3281 11.1727 14.3115
241 1 12.7372 12.717 -0.182561
242 1 14.2889 13.9522 1.22813
243 1 12.7119 12.5895 2.67661
244 1 14.4265 14.2049 4.8468
245 1 12.6599 12.7094 6.46737
246 1 14.384 14.3336 8.02894
247 1 12.5262 12.7095 9.57375
248 1 13.9881 14.2541 11.2361
249 1 12.5429 12.6241 12.592
250 1 14.3611 14.4411 14.4022
ITEM: TIMESTEP
2300
ITEM: NUMBER OF ATOMS
250
ITEM: BOX BOUNDS pp pp pp
-1.1812125333506589e-01 1.5943121253334857e+01
-1.1812125333506589e-01 1.5943121253334857e+01
-1.1812125333506589e-01 1.5943121253334857e+01
ITEM: ATOMS id type x y z
1 1 -0.0583723 -0.474678 15.7618
2 1 1.70738 1.37941 1.35313
3 1 -0.192837 15.7283 3.10122
4 1 1.26032 1.55158 4.6192
5 1 -0.184407 0.0302041 6.15792
6 1 1.24761 1.42892 7.72588
7 1 -0.318479 -0.102381 9.50387
8 1 1.65893 1.65166 11.1031
9 1 -0.0248482 15.9617 12.5701
10 1 1.50607 1.34192 14.3896
11 1 16.3191 2.85893 -0.169838
12 1 1.7192 4.31785 1.53333
13 1 16.0118 2.93663 3.0296
14 1 1.58792 4.77597 4.83104
15 1 -0.248417 3.12699 6.55773
16 1 1.18166 5.0425 7.96398
17 1 16.1652 3.17956 9.73269
18 1 1.2689 4.80972 11.3977
19 1 16.1196 3.17649 12.6625
20 1 1.58143 4.48666 14.4146
21 1 -0.363575 5.81411 -0.0541699
22 1 1.4632 7.63219 1.385
23 1 16.2493 6.29105 3.00198
24 1 1.76522 8.18552 4.74776
25 1 15.9543 6.46006 6.19146
26 1 1.36724 8.05805 8.19494
27 1 -0.298632 6.31532 9.56604
28 1 1.50179 7.84491 11.3969
29 1 -0.217966 6.33143 12.8703
30 1 1.1349 7.83284 14.4167
31 1 15.9576 9.7323 15.8543
32 1 1.63561 10.9488 1.49881
33 1 -0.122793 9.47045 2.73284
34 1 1.35462 11.2855 4.54591
35 1 -0.151458 9.39265 6.10889
36 1 1.38544 11.0845 8.11908
37 1 -0.350099 9.40896 9.42774
38 1 1.55954 11.2318 11.1778
39 1 15.7287 9.55631 12.6464
40 1 1.49189 11.1208 14.2449
41 1 16.1022 12.6904 15.6738
42 1 1.5538 14.416 1.22617
43 1 -0.0835757 12.874 2.71432
44 1 1.51673 14.43 4.59473
45 1 16.0143 12.4029 6.3498
46 1 1.3113 14.2784 7.9178
47 1 15.7343 12.4837 9.44423
48 1 1.30706 14.0645 10.9762
49 1 -0.235362 12.5262 12.6119
50 1 1.46194 14.4894 14.1859
51 1 3.01915 -0.274588 15.7741
52 1 4.95007 1.31769 1.48727
53 1 3.20862 -0.0542216 2.74499
54 1 4.75576 1.21165 4.5952
55 1 2.85309 -0.085836 6.11207
56 1 4.50615 1.67757 8.15352
57 1 2.8681 -0.0625143 9.71916
58 1 4.75366 1.3905 11.4581
59 1 3.06 15.7909 12.5662
60 1 5.01024 1.24254 14.2425
61 1 3.45334 2.79392 15.9362
62 1 4.82704 4.82557 1.56125
63 1 3.30603 3.12379 3.24332
64 1 4.88993 4.51635 4.74076
65 1 3.15049 3.22729 6.62801
66 1 4.99303 4.81241 7.84438
67 1 3.09916 3.65498 9.86619
68 1 4.91403 4.72045 11.4832
69 1 3.20812 3.14054 13.0556
70 1 4.90326 4.46811 14.385
71 1 2.77426 6.24661 -0.396437
72 1 4.81543 7.77865 1.24473
73 1 3.21506 6.45565 3.22058
74 1 4.75364 7.86121 4.78708
75 1 3.14478 6.55815 6.34435
76 1 4.56447 7.96735 7.9207
77 1 3.03547 6.56935 9.53704
78 1 4.74115 7.92596 11.1284
79 1 3.1791 6.10298 12.8923
80 1 4.73103 7.76267 14.2561
81 1 3.179 9.44495 15.9151
82 1 4.80303 11.046 1.10507
83 1 3.12382 9.51266 2.76959
84 1 4.61559 11.3847 4.83706
85 1 2.98159 9.94599 6.42194
86 1 4.62412 11.2045 8.06316
87 1 3.00593 9.44467 9.61593
88 1 4.70182 11.1299 11.3072
89 1 3.12917 9.60488 12.6159
90 1 4.73101 10.9731 14.146
91 1 3.15513 12.7461 15.9856
92 1 4.91742 14.1667 1.43382
93 1 3.08181 12.6999 2.75076
94 1 4.50427 14.2613 4.53265
95 1 3.10239 12.7788 6.55836
96 1 4.40904 14.3652 7.80962
97 1 3.04298 12.648 9.40698
98 1 4.72295 14.2091 11.3357
99 1 3.24567 12.552 12.7764
100 1 4.39881 14.1456 14.4315
101 1 6.46117 15.9614 16.1559
102 1 8.07619 1.6551 1.5818
103 1 6.36356 15.9663 3.08385
104 1 7.88684 1.44596 4.89986
105 1 5.95238 16.1377 6.62968
106 1 8.02012 1.55744 7.95457
107 1 6.44943 -0.245271 9.56707
108 1 7.80261 1.4537 11.001
109 1 6.46943 -0.209898 12.8084
110 1 7.84323 1.61387 14.4431
111 1 6.55893 3.04617 16.0094
112 1 7.82802 4.96371 1.45393
113 1 6.48903 2.97775 3.25163
114 1 7.74687 4.72362 4.70179
115 1 6.43597 2.98185 6.35012
116 1 7.97392 4.68946 7.6889
117 1 6.30834 3.08463 9.54023
118 1 8.16949 4.93909 11.1996
119 1 6.63018 3.02805 12.6908
120 1 8.14778 4.77343 14.4164
121 1 6.34174 6.25829 -0.327355
122 1 8.12272 8.02029 1.91852
123 1 6.69289 6.35267 3.04697
124 1 8.21861 7.87371 4.92483
125 1 6.31041 6.2108 6.16441
126 1 7.87886 7.99673 7.72929
127 1 6.49978 6.29043 9.63019
128 1 7.99911 7.91508 10.9808
129 1 6.45186 6.26477 12.5846
130 1 7.94749 7.90541 14.2366
131 1 6.17107 9.42158 15.9775
132 1 7.52889 11.1547 1.53313
133 1 6.26801 9.28008 3.37402
134 1 7.79018 11.2794 4.70871
135 1 6.05562 9.86129 6.23493
136 1 7.95371 11.0061 7.94152
137 1 6.11576 9.31951 9.58872
138 1 8.0251 11.1524 10.996
139 1 6.53364 9.29835 12.6203
140 1 8.01098 10.8452 14.2943
141 1 6.41633 12.5581 -0.129214
142 1 7.77947 14.298 1.65959
143 1 6.20978 12.9415 3.22229
144 1 7.90841 14.3654 4.7848
145 1 6.34618 12.6918 6.34227
146 1 7.8058 14.5993 7.86491
147 1 6.10996 12.5509 9.57635
148 1 8.0609 14.4439 11.2774
149 1 6.32327 12.587 12.6321
150 1 7.77958 14.0841 14.3917
151 1 9.41826 -0.012931 0.211843
152 1 11.2413 1.29391 1.80256
153 1 9.42005 16.0885 3.30437
154 1 10.9053 1.43358 4.8528
155 1 9.24997 16.0643 6.3588
156 1 11.2033 1.52784 7.8959
157 1 9.6137 -0.193481 9.49816
158 1 11.2318 1.58621 11.0673
159 1 9.57737 0.251739 12.8029
160 1 11.209 1.4168 14.2612
161 1 9.71323 3.14981 -0.0268024
162 1 11.1859 4.64017 1.57974
163 1 9.49572 2.98962 3.36533
164 1 11.2761 4.64747 4.80891
165 1 9.67489 3.23533 6.40828
166 1 11.1446 4.60468 7.71976
167 1 9.44592 3.47958 9.3058
168 1 11.4479 4.62911 11.4266
169 1 9.79277 3.25576 12.664
170 1 11.1729 4.61611 14.5115
171 1 9.18598 6.50971 0.123168
172 1 11.1568 7.94628 1.45027
173 1 9.60332 6.12928 3.12591
174 1 11.3332 7.94098 4.87587
175 1 9.59506 6.4245 6.37124
176 1 11.4562 7.98698 7.86873
177 1 9.72138 6.49209 9.42757
178 1 11.0221 7.86111 11.0574
179 1 9.55037 6.41999 12.8757
180 1 11.214 7.7059 14.5936
181 1 9.75576 9.46725 -0.354375
182 1 10.93 11.0612 1.55133
183 1 9.42711 9.65914 3.15678
184 1 11.1242 11.481 4.63521
185 1 9.45287 9.48772 6.18911
186 1 10.8473 11.4186 7.8275
187 1 9.73106 9.4404 9.29139
188 1 11.0874 11.2557 10.8584
189 1 9.54403 9.37405 12.7292
190 1 11.1295 11.0376 14.1968
191 1 9.27329 12.9604 -0.0408535
192 1 11.0606 14.3434 1.59919
193 1 9.57786 12.8058 3.05432
194 1 11.0492 14.2582 4.64114
195 1 9.30103 12.8425 6.12845
196 1 11.0402 14.5436 7.77665
197 1 9.33722 12.8145 9.37723
198 1 10.9643 14.2042 11.2659
199 1 9.3113 12.831 12.6268
200 1 10.7968 14.6223 14.2926
201 1 12.6746 15.8324 -0.221204
202 1 14.5309 1.21709 1.43993
203 1 12.5668 15.8543 3.01863
204 1 14.2424 1.38665 4.21234
205 1 12.5219 16.1559 6.22519
206 1 14.3761 1.51602 8.01314
207 1 12.3958 -0.195203 9.64347
208 1 14.2538 1.61921 10.9928
209 1 12.8272 15.7768 12.777
210 1 14.2692 1.27778 13.9361
211 1 12.9887 2.84867 16.3136
212 1 14.4417 4.62231 1.71691
213 1 12.8461 3.10388 3.08342
214 1 14.2873 4.5731 4.74687
215 1 12.9176 3.00057 6.4938
216 1 14.0871 4.55718 8.30755
217 1 12.3525 3.0217 9.25357
218 1 14.4785 4.77184 11.4346
219 1 12.6349 2.65898 12.6128
220 1 13.8828 4.52389 14.4747
221 1 12.847 6.03816 -0.0332661
222 1 14.2717 7.99307 1.43156
223 1 12.5578 6.01485 3.17789
224 1 14.4975 7.71193 4.52053
225 1 12.6192 6.48704 6.25871
226 1 14.3938 7.88236 7.86691
227 1 12.6299 6.41651 9.78419
228 1 14.022 8.16771 11.0941
229 1 12.8953 6.44833 12.8272
230 1 14.5923 8.14317 14.4022
231 1 12.5961 9.6223 -0.232641
232 1 14.4606 11.4625 1.31892
233 1 12.6029 9.63958 3.17016
234 1 14.5391 11.0775 4.63666
235 1 12.7407 9.62779 6.26477
236 1 14.1199 11.277 7.96709
237 1 12.7144 9.57289 9.45926
238 1 14.1238 11.1611 11.2382
239 1 12.5838 9.39338 12.8129
240 1 14.0211 11.2285 14.2437
241 1 12.2801 12.9869 15.8638
242 1 14.415 14.5756 1.33642
243 1 13.0134 12.8137 3.14906
244 1 14.448 14.1715 4.48317
245 1 12.8948 12.8407 5.99191
246 1 14.1477 14.6614 7.72823
247 1 12.6288 12.8968 9.31169
248 1 14.4054 14.5241 10.9893
249 1 12.5966 12.7992 12.6622
250 1 14.3351 14.1448 13.9367
ITEM: TIMESTEP
2400
ITEM: NUMBER OF ATOMS
250
ITEM: BOX BOUNDS pp pp pp
-1.0710854346511936e-01 1.5932108543464912e+01
-1.0710854346511936e-01 1.5932108543464912e+01
-1.0710854346511936e-01 1.5932108543464912e+01
ITEM: ATOMS id type x y z
1 1 -0.109661 16.0989 15.7223
2 1 1.71252 1.24315 1.3437
3 1 16.0918 16.1851 2.66651
4 1 1.55478 1.55532 4.84612
5 1 15.714 -0.174281 6.33896
6 1 1.68515 1.55553 8.01447
7 1 16.0814 -0.264101 9.3393
8 1 1.47975 1.56097 11.0726
9 1 -0.142541 -0.12581 12.5054
10 1 1.76482 1.4867 14.1331
11 1 -0.155597 2.95833 15.92
12 1 1.81064 4.82038 1.34894
13 1 0.215155 3.18058 2.92314
14 1 1.55138 4.72281 4.6698
15 1 15.8939 3.24702 6.49145
16 1 1.53397 4.68879 8.25941
17 1 -0.315312 3.03724 9.59649
18 1 1.61113 4.83217 11.393
19 1 -0.274007 2.88754 12.8351
20 1 1.41346 4.64346 14.3639
21 1 16.1531 6.40832 -0.119361
22 1 1.54527 8.16432 1.38554
23 1 -0.0252882 6.1901 3.05528
24 1 1.3672 7.95215 4.51548
25 1 0.080457 6.35932 6.27351
26 1 1.38273 7.69619 7.86924
27 1 15.9172 6.45146 9.94875
28 1 1.40862 7.93512 11.152
29 1 15.7121 6.27607 12.9677
30 1 1.65724 7.97887 14.1828
31 1 -0.074014 9.60058 15.8645
32 1 1.52482 11.1738 1.24127
33 1 15.8701 9.59597 3.08967
34 1 1.5849 10.9054 4.5905
35 1 15.8483 9.64518 6.08105
36 1 1.52954 10.6935 7.84187
37 1 15.735 9.52634 9.75153
38 1 1.1922 10.8624 11.2484
39 1 15.8243 9.37352 12.7635
40 1 1.61347 11.1501 14.2029
41 1 -0.150047 12.851 15.941
42 1 1.51444 14.2161 1.45263
43 1 -0.0386546 12.6202 3.04519
44 1 1.20373 14.2052 4.65382
45 1 -0.2335 12.797 6.08156
46 1 1.43187 14.1078 7.82789
47 1 15.9967 12.7663 9.44872
48 1 1.52088 14.3555 11.184
49 1 15.7854 12.8129 12.6915
50 1 1.51237 14.0855 14.1394
51 1 3.30931 15.9113 15.9115
52 1 4.71356 1.37959 1.6056
53 1 3.02254 15.6825 3.28275
54 1 4.49915 1.72976 4.98088
55 1 2.9411 15.6058 6.47134
56 1 4.34211 1.61781 8.18167
57 1 3.02053 -0.316683 9.3503
58 1 4.80845 1.52697 10.9852
59 1 3.10856 16.0264 12.7467
60 1 4.84524 1.40091 14.5799
61 1 3.25145 3.12418 -0.0250322
62 1 4.78221 4.69884 1.59652
63 1 3.0688 2.73599 2.93076
64 1 4.62618 4.91249 4.66906
65 1 2.87008 3.27609 6.19281
66 1 4.57493 4.64283 8.00422
67 1 3.07793 3.22984 9.65335
68 1 4.78781 4.50624 11.1494
69 1 3.35026 2.93685 12.7418
70 1 4.87615 4.68196 14.5215
71 1 3.2215 6.28235 15.9521
72 1 4.72575 7.84208 1.54531
73 1 3.07193 6.32123 3.17531
74 1 4.84801 8.05326 4.78824
75 1 3.12763 6.3176 6.44566
76 1 4.6952 7.87272 8.22192
77 1 3.03132 6.15876 9.86309
78 1 4.69331 7.73174 11.3603
79 1 3.21055 6.36568 12.8427
80 1 4.87617 7.79785 14.469
81 1 3.05516 9.46065 15.8185
82 1 4.58554 11.2197 1.70635
83 1 3.30259 9.41125 3.05119
84 1 4.5816 10.9536 4.58712
85 1 3.25366 9.1614 6.33499
86 1 4.64534 10.9117 7.95655
87 1 3.07183 9.50193 9.84587
88 1 4.6705 11.0392 11.1317
89 1 3.05575 9.39051 12.8719
90 1 4.68289 11.0241 14.4984
91 1 2.98862 12.5602 -0.219578
92 1 4.61681 14.3821 1.42027
93 1 3.08147 12.7516 3.32324
94 1 4.81136 14.331 4.9995
95 1 2.87073 12.5079 6.20805
96 1 4.68034 14.1854 8.13701
97 1 3.03729 12.5961 9.83316
98 1 4.73873 14.2968 10.9095
99 1 3.07855 12.8296 12.5888
100 1 4.9685 14.476 14.167
101 1 6.51783 -0.216873 -0.0563306
102 1 8.03401 1.46843 1.58343
103 1 6.28437 -0.162392 3.21456
104 1 7.78133 1.66815 4.62126
105 1 6.03782 0.000665471 6.27068
106 1 7.49181 1.54606 7.82189
107 1 6.02838 16.067 9.33981
108 1 8.01833 1.26087 10.9743
109 1 6.28807 15.7757 12.7329
110 1 8.25583 1.18548 14.404
111 1 6.4153 3.06602 0.134045
112 1 8.20579 4.5217 1.66522
113 1 6.21081 3.15159 3.11186
114 1 8.10825 4.90069 4.67604
115 1 6.05179 3.29776 6.30088
116 1 8.17356 5.06458 8.03541
117 1 6.43465 3.18265 9.65246
118 1 7.97056 4.68351 11.1453
119 1 6.36702 2.65791 12.7617
120 1 7.87229 4.4516 14.3253
121 1 6.573 6.27681 16.1536
122 1 7.86072 7.96922 1.30688
123 1 6.07669 6.45053 3.20427
124 1 7.7428 8.1178 4.53963
125 1 6.56586 6.57528 6.50256
126 1 7.89234 8.11013 8.14138
127 1 6.3541 6.3198 9.58136
128 1 7.69013 7.77844 11.1878
129 1 6.43017 6.14492 12.9836
130 1 7.85721 7.6774 14.3213
131 1 6.55299 9.46468 -0.136839
132 1 8.08522 11.2528 1.54604
133 1 6.4044 9.78244 2.82444
134 1 8.15728 11.2155 4.61159
135 1 6.57547 9.49029 6.11714
136 1 7.73698 11.0811 7.94378
137 1 6.18139 9.49543 9.67559
138 1 7.85292 10.903 11.2977
139 1 6.07996 9.62616 12.9103
140 1 7.84492 11.2174 14.3299
141 1 6.17495 12.6782 15.7875
142 1 8.15354 14.3242 1.51043
143 1 6.24913 12.5614 3.19694
144 1 7.70666 14.4001 4.80704
145 1 6.07881 12.8486 6.49079
146 1 7.72869 14.1595 7.82333
147 1 6.46012 12.5889 9.52425
148 1 7.77347 14.0444 10.7179
149 1 6.38316 12.7505 12.7011
150 1 8.01363 14.3884 14.4365
151 1 9.74252 -0.261195 -0.244835
152 1 11.0279 1.52739 1.27717
153 1 9.60135 -0.138749 3.03232
154 1 11.2791 1.73694 4.55973
155 1 9.42732 -0.000639325 6.18541
156 1 10.5077 1.66381 7.85436
157 1 9.2453 15.9697 9.3092
158 1 10.6713 1.44508 11.0201
159 1 9.24284 -0.341006 12.4688
160 1 11.1771 1.58973 14.239
161 1 9.56096 2.93153 -0.0765232
162 1 11.0729 4.69776 1.51139
163 1 9.63862 3.3098 2.96729
164 1 11.0597 4.76657 4.7042
165 1 9.21766 3.15791 6.13828
166 1 11.2899 4.96286 8.02603
167 1 9.63781 2.96911 9.64441
168 1 10.9641 4.8665 11.0317
169 1 9.41796 2.94488 12.7861
170 1 11.1965 4.78083 14.3771
171 1 9.87223 6.18835 -0.283527
172 1 11.1749 7.76783 1.62269
173 1 9.49488 6.63804 3.24114
174 1 11.1539 7.98413 4.71932
175 1 9.71422 6.51103 6.33604
176 1 11.0219 8.16231 7.93569
177 1 9.47673 6.37527 9.63268
178 1 11.1995 8.03035 11.2121
179 1 9.63805 6.14797 12.6817
180 1 11.0836 8.02296 14.1514
181 1 9.37644 9.51498 16.1596
182 1 11.0479 11.3124 1.36134
183 1 9.59362 9.51031 3.13935
184 1 11.1869 10.9839 4.63787
185 1 9.65817 9.70036 6.44325
186 1 11.3671 11.1109 7.74028
187 1 9.44334 9.6671 9.70278
188 1 11.063 11.1934 11.1159
189 1 9.37495 9.52032 12.5028
190 1 10.9477 11.0749 14.2516
191 1 9.57788 12.4879 -0.214112
192 1 11.1363 14.4766 1.55444
193 1 9.44005 12.9125 3.2759
194 1 11.1556 14.6056 4.7578
195 1 9.52924 12.8619 6.37692
196 1 10.9846 14.3235 7.81347
197 1 9.58798 12.6958 9.45393
198 1 11.1217 14.5704 10.9264
199 1 9.52981 12.5798 12.6738
200 1 11.1734 14.2237 14.3042
201 1 12.7398 15.9748 15.8346
202 1 14.3586 1.55237 1.4218
203 1 13.0469 16.0415 3.31842
204 1 14.493 1.74146 5.08202
205 1 12.7985 -0.086931 6.33843
206 1 14.1517 1.55024 7.97021
207 1 12.7333 16.062 9.21996
208 1 14.3359 1.32407 11.0823
209 1 12.5021 16.1117 12.5255
210 1 14.3313 1.46437 14.5773
211 1 12.5094 3.13787 -0.252155
212 1 14.5271 4.71976 1.36478
213 1 12.7084 3.10289 3.15864
214 1 14.481 4.7587 4.72366
215 1 12.4699 3.15757 6.31923
216 1 14.5981 5.03257 8.02193
217 1 12.8588 3.18211 9.80474
218 1 14.2528 4.66444 11.1054
219 1 12.869 3.482 12.7648
220 1 14.6496 4.42429 14.4262
221 1 12.6961 6.32072 0.0450433
222 1 14.5202 7.93217 1.33224
223 1 12.9173 6.55728 3.14659
224 1 14.362 7.85065 4.51948
225 1 13.2324 6.11894 6.40335
226 1 14.1961 8.04915 7.70433
227 1 12.8704 6.22398 9.44165
228 1 14.2843 7.79997 11.1392
229 1 12.629 6.29411 12.935
230 1 13.9283 7.8534 14.6041
231 1 12.6709 9.69262 16.0228