LAMMPS data file for BCC tungsten 5x5x5 supercell

250 atoms
1 atom types

0.0 15.825000 xlo xhi
0.0 15.825000 ylo yhi
0.0 15.825000 zlo zhi

Masses

1 183.84

Atoms

1 1 0.000000 0.000000 0.000000
2 1 1.582500 1.582500 1.582500
3 1 0.000000 0.000000 3.165000
4 1 1.582500 1.582500 4.747500
5 1 0.000000 0.000000 6.330000
6 1 1.582500 1.582500 7.912500
7 1 0.000000 0.000000 9.495000
8 1 1.582500 1.582500 11.077500
9 1 0.000000 0.000000 12.660000
10 1 1.582500 1.582500 14.242500
11 1 0.000000 3.165000 0.000000
12 1 1.582500 4.747500 1.582500
13 1 0.000000 3.165000 3.165000
14 1 1.582500 4.747500 4.747500
15 1 0.000000 3.165000 6.330000
16 1 1.582500 4.747500 7.912500
17 1 0.000000 3.165000 9.495000
18 1 1.582500 4.747500 11.077500
19 1 0.000000 3.165000 12.660000
20 1 1.582500 4.747500 14.242500
21 1 0.000000 6.330000 0.000000
22 1 1.582500 7.912500 1.582500
23 1 0.000000 6.330000 3.165000
24 1 1.582500 7.912500 4.747500
25 1 0.000000 6.330000 6.330000
26 1 1.582500 7.912500 7.912500
27 1 0.000000 6.330000 9.495000
28 1 1.582500 7.912500 11.077500
29 1 0.000000 6.330000 12.660000
30 1 1.582500 7.912500 14.242500
31 1 0.000000 9.495000 0.000000
32 1 1.582500 11.077500 1.582500
33 1 0.000000 9.495000 3.165000
34 1 1.582500 11.077500 4.747500
35 1 0.000000 9.495000 6.330000
36 1 1.582500 11.077500 7.912500
37 1 0.000000 9.495000 9.495000
38 1 1.582500 11.077500 11.077500
39 1 0.000000 9.495000 12.660000
40 1 1.582500 11.077500 14.242500
41 1 0.000000 12.660000 0.000000
42 1 1.582500 14.242500 1.582500
43 1 0.000000 12.660000 3.165000
44 1 1.582500 14.242500 4.747500
45 1 0.000000 12.660000 6.330000
46 1 1.582500 14.242500 7.912500
47 1 0.000000 12.660000 9.495000
48 1 1.582500 14.242500 11.077500
49 1 0.000000 12.660000 12.660000
50 1 1.582500 14.242500 14.242500
51 1 3.165000 0.000000 0.000000
52 1 4.747500 1.582500 1.582500
53 1 3.165000 0.000000 3.165000
54 1 4.747500 1.582500 4.747500
55 1 3.165000 0.000000 6.330000
56 1 4.747500 1.582500 7.912500
57 1 3.165000 0.000000 9.495000
58 1 4.747500 1.582500 11.077500
59 1 3.165000 0.000000 12.660000
60 1 4.747500 1.582500 14.242500
61 1 3.165000 3.165000 0.000000
62 1 4.747500 4.747500 1.582500
63 1 3.165000 3.165000 3.165000
64 1 4.747500 4.747500 4.747500
65 1 3.165000 3.165000 6.330000
66 1 4.747500 4.747500 7.912500
67 1 3.165000 3.165000 9.495000
68 1 4.747500 4.747500 11.077500
69 1 3.165000 3.165000 12.660000
70 1 4.747500 4.747500 14.242500
71 1 3.165000 6.330000 0.000000
72 1 4.747500 7.912500 1.582500
73 1 3.165000 6.330000 3.165000
74 1 4.747500 7.912500 4.747500
75 1 3.165000 6.330000 6.330000
76 1 4.747500 7.912500 7.912500
77 1 3.165000 6.330000 9.495000
78 1 4.747500 7.912500 11.077500
79 1 3.165000 6.330000 12.660000
80 1 4.747500 7.912500 14.242500
81 1 3.165000 9.495000 0.000000
82 1 4.747500 11.077500 1.582500
83 1 3.165000 9.495000 3.165000
84 1 4.747500 11.077500 4.747500
85 1 3.165000 9.495000 6.330000
86 1 4.747500 11.077500 7.912500
87 1 3.165000 9.495000 9.495000
88 1 4.747500 11.077500 11.077500
89 1 3.165000 9.495000 12.660000
90 1 4.747500 11.077500 14.242500
91 1 3.165000 12.660000 0.000000
92 1 4.747500 14.242500 1.582500
93 1 3.165000 12.660000 3.165000
94 1 4.747500 14.242500 4.747500
95 1 3.165000 12.660000 6.330000
96 1 4.747500 14.242500 7.912500
97 1 3.165000 12.660000 9.495000
98 1 4.747500 14.242500 11.077500
99 1 3.165000 12.660000 12.660000
100 1 4.747500 14.242500 14.242500
101 1 6.330000 0.000000 0.000000
102 1 7.912500 1.582500 1.582500
103 1 6.330000 0.000000 3.165000
104 1 7.912500 1.582500 4.747500
105 1 6.330000 0.000000 6.330000
106 1 7.912500 1.582500 7.912500
107 1 6.330000 0.000000 9.495000
108 1 7.912500 1.582500 11.077500
109 1 6.330000 0.000000 12.660000
110 1 7.912500 1.582500 14.242500
111 1 6.330000 3.165000 0.000000
112 1 7.912500 4.747500 1.582500
113 1 6.330000 3.165000 3.165000
114 1 7.912500 4.747500 4.747500
115 1 6.330000 3.165000 6.330000
116 1 7.912500 4.747500 7.912500
117 1 6.330000 3.165000 9.495000
118 1 7.912500 4.747500 11.077500
119 1 6.330000 3.165000 12.660000
120 1 7.912500 4.747500 14.242500
121 1 6.330000 6.330000 0.000000
122 1 7.912500 7.912500 1.582500
123 1 6.330000 6.330000 3.165000
124 1 7.912500 7.912500 4.747500
125 1 6.330000 6.330000 6.330000
126 1 7.912500 7.912500 7.912500
127 1 6.330000 6.330000 9.495000
128 1 7.912500 7.912500 11.077500
129 1 6.330000 6.330000 12.660000
130 1 7.912500 7.912500 14.242500
131 1 6.330000 9.495000 0.000000
132 1 7.912500 11.077500 1.582500
133 1 6.330000 9.495000 3.165000
134 1 7.912500 11.077500 4.747500
135 1 6.330000 9.495000 6.330000
136 1 7.912500 11.077500 7.912500
137 1 6.330000 9.495000 9.495000
138 1 7.912500 11.077500 11.077500
139 1 6.330000 9.495000 12.660000
140 1 7.912500 11.077500 14.242500
141 1 6.330000 12.660000 0.000000
142 1 7.912500 14.242500 1.582500
143 1 6.330000 12.660000 3.165000
144 1 7.912500 14.242500 4.747500
145 1 6.330000 12.660000 6.330000
146 1 7.912500 14.242500 7.912500
147 1 6.330000 12.660000 9.495000
148 1 7.912500 14.242500 11.077500
149 1 6.330000 12.660000 12.660000
150 1 7.912500 14.242500 14.242500
151 1 9.495000 0.000000 0.000000
152 1 11.077500 1.582500 1.582500
153 1 9.495000 0.000000 3.165000
154 1 11.077500 1.582500 4.747500
155 1 9.495000 0.000000 6.330000
156 1 11.077500 1.582500 7.912500
157 1 9.495000 0.000000 9.495000
158 1 11.077500 1.582500 11.077500
159 1 9.495000 0.000000 12.660000
160 1 11.077500 1.582500 14.242500
161 1 9.495000 3.165000 0.000000
162 1 11.077500 4.747500 1.582500
163 1 9.495000 3.165000 3.165000
164 1 11.077500 4.747500 4.747500
165 1 9.495000 3.165000 6.330000
166 1 11.077500 4.747500 7.912500
167 1 9.495000 3.165000 9.495000
168 1 11.077500 4.747500 11.077500
169 1 9.495000 3.165000 12.660000
170 1 11.077500 4.747500 14.242500
171 1 9.495000 6.330000 0.000000
172 1 11.077500 7.912500 1.582500
173 1 9.495000 6.330000 3.165000
174 1 11.077500 7.912500 4.747500
175 1 9.495000 6.330000 6.330000
176 1 11.077500 7.912500 7.912500
177 1 9.495000 6.330000 9.495000
178 1 11.077500 7.912500 11.077500
179 1 9.495000 6.330000 12.660000
180 1 11.077500 7.912500 14.242500
181 1 9.495000 9.495000 0.000000
182 1 11.077500 11.077500 1.582500
183 1 9.495000 9.495000 3.165000
184 1 11.077500 11.077500 4.747500
185 1 9.495000 9.495000 6.330000
186 1 11.077500 11.077500 7.912500
187 1 9.495000 9.495000 9.495000
188 1 11.077500 11.077500 11.077500
189 1 9.495000 9.495000 12.660000
190 1 11.077500 11.077500 14.242500
191 1 9.495000 12.660000 0.000000
192 1 11.077500 14.242500 1.582500
193 1 9.495000 12.660000 3.165000
194 1 11.077500 14.242500 4.747500
195 1 9.495000 12.660000 6.330000
196 1 11.077500 14.242500 7.912500
197 1 9.495000 12.660000 9.495000
198 1 11.077500 14.242500 11.077500
199 1 9.495000 12.660000 12.660000
200 1 11.077500 14.242500 14.242500
201 1 12.660000 0.000000 0.000000
202 1 14.242500 1.582500 1.582500
203 1 12.660000 0.000000 3.165000
204 1 14.242500 1.582500 4.747500
205 1 12.660000 0.000000 6.330000
206 1 14.242500 1.582500 7.912500
207 1 12.660000 0.000000 9.495000
208 1 14.242500 1.582500 11.077500
209 1 12.660000 0.000000 12.660000
210 1 14.242500 1.582500 14.242500
211 1 12.660000 3.165000 0.000000
212 1 14.242500 4.747500 1.582500
213 1 12.660000 3.165000 3.165000
214 1 14.242500 4.747500 4.747500
215 1 12.660000 3.165000 6.330000
216 1 14.242500 4.747500 7.912500
217 1 12.660000 3.165000 9.495000
218 1 14.242500 4.747500 11.077500
219 1 12.660000 3.165000 12.660000
220 1 14.242500 4.747500 14.242500
221 1 12.660000 6.330000 0.000000
222 1 14.242500 7.912500 1.582500
223 1 12.660000 6.330000 3.165000
224 1 14.242500 7.912500 4.747500
225 1 12.660000 6.330000 6.330000
226 1 14.242500 7.912500 7.912500
227 1 12.660000 6.330000 9.495000
228 1 14.242500 7.912500 11.077500
229 1 12.660000 6.330000 12.660000
230 1 14.242500 7.912500 14.242500
231 1 12.660000 9.495000 0.000000
232 1 14.242500 11.077500 1.582500
233 1 12.660000 9.495000 3.165000
234 1 14.242500 11.077500 4.747500
235 1 12.660000 9.495000 6.330000
236 1 14.242500 11.077500 7.912500
237 1 12.660000 9.495000 9.495000
238 1 14.242500 11.077500 11.077500
239 1 12.660000 9.495000 12.660000
240 1 14.242500 11.077500 14.242500
241 1 12.660000 12.660000 0.000000
242 1 14.242500 14.242500 1.582500
243 1 12.660000 12.660000 3.165000
244 1 14.242500 14.242500 4.747500
245 1 12.660000 12.660000 6.330000
246 1 14.242500 14.242500 7.912500
247 1 12.660000 12.660000 9.495000
248 1 14.242500 14.242500 11.077500
249 1 12.660000 12.660000 12.660000
250 1 14.242500 14.242500 14.242500
